 Gaussian 16, Revision B.01,

 ----------------------------------------------------------------------
 # B3LYP/6-31G(d,p) empiricaldispersion=GD3BJ int=(grid=fine) opt freq=
 noraman
 ----------------------------------------------------------------------

 -------
 1_1.xyz
 -------
 Symbolic Z-matrix:
 Charge =  0 Multiplicity = 1

 SCF Done:  E(RB3LYP) =  -2649.70272159     A.U. after   14 cycles
 SCF Done:  E(RB3LYP) =  -2649.70440428     A.U. after   12 cycles
 SCF Done:  E(RB3LYP) =  -2649.70452851     A.U. after   11 cycles
 SCF Done:  E(RB3LYP) =  -2649.70453708     A.U. after    8 cycles
 Optimization completed.
    -- Stationary point found.
 Normal termination of Gaussian 16 at Sat Feb 13 09:35:44 2021.

 ----------------------------------------------------------------------
 #N Geom=AllCheck Guess=TCheck SCRF=Check GenChk RB3LYP/6-31G(d,p) Freq
 ----------------------------------------------------------------------

 Structure from the checkpoint file:  "1_1.chk"
 -------
 1_1.xyz
 -------
 Charge =  0 Multiplicity = 1

 SCF Done:  E(RB3LYP) =  -2649.70453708     A.U. after    1 cycles

                      1                      2                      3
                      A                      A                      A
 Frequencies --    348.5867               597.2611               600.8998
 Red. masses --      3.1973                 3.8454                 1.4074
 Frc consts  --      0.2289                 0.8082                 0.2994
 IR Inten    --      0.1451                26.9376                12.1480

                      4                      5                      6
                      A                      A                      A
 Frequencies --    927.5701               978.0092              1021.7949
 Red. masses --      1.3706                 1.0663                 1.3222
 Frc consts  --      0.6948                 0.6009                 0.8134
 IR Inten    --     22.3202                36.1881                10.2540

                      7                      8                      9
                      A                      A                      A
 Frequencies --   1284.5535              1414.0075              1682.0317
 Red. masses --      1.2054                 1.1779                 4.4307
 Frc consts  --      1.1719                 1.3876                 7.3856
 IR Inten    --     29.9289                 8.8322                44.4278

                     10                     11                     12
                      A                      A                      A
 Frequencies --   3166.1240              3237.0757              3262.5823
 Red. masses --      1.0590                 1.0986                 1.1148
 Frc consts  --      6.2547                 6.7823                 6.9917
 IR Inten    --      0.2236                 3.8270                 3.4062

 - Thermochemistry -
 -------------------
 Temperature   298.150 Kelvin.  Pressure   1.00000 Atm.
 Atom     1 has atomic number 35 and mass  78.91834

 Molecular mass:   105.94181 amu.
 Principal axes and moments of inertia in atomic units:
                           1         2         3
     Eigenvalues --    33.07201 440.36027 473.43228
           X            0.99997   0.00730  -0.00000
           Y           -0.00730   0.99997   0.00000
           Z            0.00000  -0.00000   1.00000
 This molecule is an asymmetric top.
 Rotational symmetry number  1.
 Rotational temperatures (Kelvin)      2.61895     0.19669     0.18295
 Rotational constants (GHZ):          54.57005     4.09833     3.81204
 Zero-point vibrational energy     110777.2 (Joules/Mol)
                                   26.47638 (Kcal/Mol)
 Warning -- explicit consideration of   3 degrees of freedom as
           vibrations may cause significant error
 Vibrational temperatures:    501.54   859.33   864.56  1334.57  1407.14
          (Kelvin)           1470.13  1848.19  2034.44  2420.07  4555.35
                             4657.43  4694.13

 Zero-point correction=                           0.042193 (Hartree/Particle)
 Thermal correction to Energy=                    0.045853
 Thermal correction to Enthalpy=                  0.046797
 Thermal correction to Gibbs Free Energy=         0.015544
 Sum of electronic and zero-point Energies=          -2649.662344
 Sum of electronic and thermal Energies=             -2649.658684
 Sum of electronic and thermal Enthalpies=           -2649.657740
 Sum of electronic and thermal Free Energies=        -2649.688993

                     E (Thermal)             CV                S
                      KCal/Mol        Cal/Mol-Kelvin    Cal/Mol-Kelvin
 Total                   28.773             11.123             65.778
 Electronic               0.000              0.000              0.000
 Translational            0.889              2.981             39.890
 Rotational               0.889              2.981             23.448
 Vibrational             26.996              5.161              2.440
 Vibration     1          0.726              1.578              1.173
 Vibration     2          0.955              1.038              0.454
 Vibration     3          0.959              1.030              0.448

 Optimization completed.
    -- Stationary point found.
 Normal termination of Gaussian 16 at Sat Feb 13 09:35:51 2021.

 ------------------------------------------------------------------
 # M06/def2TZVP int=(grid=ultrafine) nmr=giao guess=read geom=check
 ------------------------------------------------------------------

 -------
 1_1.xyz
 -------
 Structure from the checkpoint file:  "1_1.chk"
 Charge =  0 Multiplicity = 1

 SCF Done:  E(RM06) =  -2652.01601973     A.U. after   11 cycles

      1  Br   Isotropic =  1980.6729   Anisotropy =  1210.9198

      2  C    Isotropic =    32.1545   Anisotropy =   136.0758

      3  C    Isotropic =    43.9556   Anisotropy =   150.9367

      4  H    Isotropic =    25.9686   Anisotropy =     8.1417

      5  H    Isotropic =    25.1797   Anisotropy =     7.3566

      6  H    Isotropic =    25.9892   Anisotropy =     6.1162

 Normal termination of Gaussian 16 at Sat Feb 13 09:35:58 2021.

 ------------------------------------------------------------------
 # M06/def2TZVP int=(grid=ultrafine) pop=nbo6 guess=read geom=check
 ------------------------------------------------------------------

 -------
 1_1.xyz
 -------
 Structure from the checkpoint file:  "1_1.chk"
 Charge =  0 Multiplicity = 1

 SCF Done:  E(RM06) =  -2652.01601973     A.U. after    1 cycles

 Summary of Natural Population Analysis:

                                     Natural Population
             Natural    ---------------------------------------------
  Atom No    Charge        Core      Valence    Rydberg      Total
 --------------------------------------------------------------------
   Br  1    0.04085     27.99994     6.94485    0.01436    34.95915
    C  2   -0.26759      1.99998     4.24516    0.02245     6.26759
    C  3   -0.39873      1.99998     4.38136    0.01739     6.39873
    H  4    0.20663      0.00000     0.79120    0.00217     0.79337
    H  5    0.20900      0.00000     0.78910    0.00190     0.79100
    H  6    0.20985      0.00000     0.78900    0.00115     0.79015
 ====================================================================
 * Total *  0.00000     31.99991    17.94066    0.05943    50.00000

 Normal termination of Gaussian 16 at Sat Feb 13 09:36:02 2021.
 Gaussian 16:  ES64L-G16RevB.01 20-Dec-2017

 ----------------------------------------------------------------------
 # M06/def2TZVP int=(grid=ultrafine) polar prop=(efg) guess=read geom=c
 heck
 ----------------------------------------------------------------------

 -------
 1_1.xyz
 -------
 Structure from the checkpoint file:  "1_1.chk"
 Charge =  0 Multiplicity = 1

                         Standard orientation:
 ---------------------------------------------------------------------
 Center     Atomic      Atomic             Coordinates (Angstroms)
 Number     Number       Type             X           Y           Z
 ---------------------------------------------------------------------
      1         35           0        0.728401   -0.045126    0.000000
      2          6           0       -1.089685    0.529480   -0.000001
      3          6           0       -2.111806   -0.314514   -0.000000
      4          1           0       -1.977653   -1.390195   -0.000000
      5          1           0       -1.180528    1.608288    0.000001
      6          1           0       -3.126906    0.071512    0.000003
 ---------------------------------------------------------------------

 SCF Done:  E(RM06) =  -2652.01601973     A.U. after    1 cycles

 The electronic state is 1-A.
 Alpha  occ. eigenvalues -- -483.19502 -62.80771 -56.51909 -56.51523 -56.51504
 Alpha  occ. eigenvalues --  -10.29792 -10.25415  -8.85093  -6.63167  -6.61900
 Alpha  occ. eigenvalues --   -6.61838  -2.68926  -2.68569  -2.68524  -2.67498
 Alpha  occ. eigenvalues --   -2.67498  -0.84210  -0.75433  -0.59323  -0.49332
 Alpha  occ. eigenvalues --   -0.45441  -0.37749  -0.35751  -0.30403  -0.27412
 Alpha virt. eigenvalues --   -0.01474   0.00625   0.05455   0.07381   0.10687
 Alpha virt. eigenvalues --    0.15728   0.17903   0.20414   0.21986   0.23475
 Alpha virt. eigenvalues --    0.25015   0.26627   0.28075   0.28437   0.29426

 Mulliken charges:
               1
     1  Br  -0.071602
     2  C   -0.067465
     3  C   -0.238521
     4  H    0.123563
     5  H    0.140871
     6  H    0.113155
 Sum of Mulliken charges =  -0.00000

 Dipole moment (field-independent basis, Debye):
    X=             -1.3714    Y=              0.2948    Z=              0.0000  Tot=              1.4028
 Quadrupole moment (field-independent basis, Debye-Ang):
   XX=            -27.1480   YY=            -29.0326   ZZ=            -32.8531
   XY=             -0.5986   XZ=             -0.0000   YZ=              0.0000

  Exact polarizability:  64.651   2.733  38.898  -0.000   0.000  29.276
 Approx polarizability:  92.117   4.899  58.710   0.000  -0.000  42.534

 Normal termination of Gaussian 16 at Sat Feb 13 09:36:10 2021.
