 Gaussian 16, Revision B.01,

 ----------------------------------------------------------------------
 # B3LYP/6-31G(d,p) empiricaldispersion=GD3BJ int=(grid=fine) opt freq=
 noraman
 ----------------------------------------------------------------------

 -------
 2_1.xyz
 -------
 Symbolic Z-matrix:
 Charge =  0 Multiplicity = 1

 SCF Done:  E(RB3LYP) =  -2689.02987771     A.U. after   14 cycles
 SCF Done:  E(RB3LYP) =  -2689.03153078     A.U. after   12 cycles
 SCF Done:  E(RB3LYP) =  -2689.03166372     A.U. after   11 cycles
 SCF Done:  E(RB3LYP) =  -2689.03167214     A.U. after    8 cycles
 Optimization completed.
    -- Stationary point found.
 Normal termination of Gaussian 16 at Sat Feb 13 11:19:28 2021.

 ----------------------------------------------------------------------
 #N Geom=AllCheck Guess=TCheck SCRF=Check GenChk RB3LYP/6-31G(d,p) Freq
 ----------------------------------------------------------------------

 Structure from the checkpoint file:  "2_1.chk"
 -------
 2_1.xyz
 -------
 Charge =  0 Multiplicity = 1

 SCF Done:  E(RB3LYP) =  -2689.03167214     A.U. after    1 cycles

                      1                      2                      3
                      A                      A                      A
 Frequencies --    198.8628               222.6487               239.7427
 Red. masses --      1.7030                 1.7067                 3.4280
 Frc consts  --      0.0397                 0.0498                 0.1161
 IR Inten    --      1.3867                 0.0718                 0.3032

                      4                      5                      6
                      A                      A                      A
 Frequencies --    353.4884               720.4290               760.7474
 Red. masses --      4.7953                 3.5711                 1.5235
 Frc consts  --      0.3530                 1.0920                 0.5195
 IR Inten    --      4.3381                26.4913                 1.3960

                      7                      8                      9
                      A                      A                      A
 Frequencies --    960.9184               969.4877              1068.3572
 Red. masses --      1.7244                 1.0637                 1.5069
 Frc consts  --      0.9381                 0.5890                 1.0133
 IR Inten    --     20.2329                38.3042                 0.2993

                     10                     11                     12
                      A                      A                      A
 Frequencies --   1109.4984              1254.0141              1324.0332
 Red. masses --      2.0624                 1.2134                 1.2298
 Frc consts  --      1.4958                 1.1243                 1.2702
 IR Inten    --      1.2739                35.5841                 2.5170

                     13                     14                     15
                      A                      A                      A
 Frequencies --   1426.5438              1492.0663              1500.5542
 Red. masses --      1.2467                 1.0441                 1.0644
 Frc consts  --      1.4948                 1.3695                 1.4120
 IR Inten    --      1.5678                 6.4213                 9.3769

                     16                     17                     18
                      A                      A                      A
 Frequencies --   1710.3396              3035.2825              3089.1080
 Red. masses --      5.8443                 1.0367                 1.1006
 Frc consts  --     10.0728                 5.6276                 6.1880
 IR Inten    --     12.2197                27.6933                18.8960

                     19                     20                     21
                      A                      A                      A
 Frequencies --   3125.8638              3180.2961              3228.5579
 Red. masses --      1.1010                 1.0908                 1.0937
 Frc consts  --      6.3383                 6.5002                 6.7166
 IR Inten    --     15.6800                 6.8861                 9.3419

 - Thermochemistry -
 -------------------
 Temperature   298.150 Kelvin.  Pressure   1.00000 Atm.
 Atom     1 has atomic number 35 and mass  78.91834

 Molecular mass:   119.95746 amu.
 Principal axes and moments of inertia in atomic units:
                           1         2         3
     Eigenvalues --    44.364051079.375061112.57529
           X            1.00000  -0.00101   0.00000
           Y            0.00101   1.00000   0.00000
           Z           -0.00000  -0.00000   1.00000
 This molecule is an asymmetric top.
 Rotational symmetry number  1.
 Rotational temperatures (Kelvin)      1.95234     0.08024     0.07785
 Rotational constants (GHZ):          40.68026     1.67202     1.62213
 Zero-point vibrational energy     185246.8 (Joules/Mol)
                                   44.27504 (Kcal/Mol)
 Warning -- explicit consideration of   4 degrees of freedom as
           vibrations may cause significant error
 Vibrational temperatures:    286.12   320.34   344.94   508.59  1036.54
          (Kelvin)           1094.55  1382.55  1394.88  1537.13  1596.32
                             1804.25  1904.99  2052.48  2146.75  2158.96
                             2460.80  4367.09  4444.54  4497.42  4575.74
                             4645.17

 Zero-point correction=                           0.070557 (Hartree/Particle)
 Thermal correction to Energy=                    0.075710
 Thermal correction to Enthalpy=                  0.076655
 Thermal correction to Gibbs Free Energy=         0.041614
 Sum of electronic and zero-point Energies=          -2688.961115
 Sum of electronic and thermal Energies=             -2688.955962
 Sum of electronic and thermal Enthalpies=           -2688.955017
 Sum of electronic and thermal Free Energies=        -2688.990059

                     E (Thermal)             CV                S
                      KCal/Mol        Cal/Mol-Kelvin    Cal/Mol-Kelvin
 Total                   47.509             16.473             73.750
 Electronic               0.000              0.000              0.000
 Translational            0.889              2.981             40.260
 Rotational               0.889              2.981             25.480
 Vibrational             45.732             10.511              8.010
 Vibration     1          0.637              1.841              2.144
 Vibration     2          0.648              1.807              1.937
 Vibration     3          0.657              1.780              1.805
 Vibration     4          0.730              1.568              1.151

 Optimization completed.
    -- Stationary point found.
 Normal termination of Gaussian 16 at Sat Feb 13 11:19:39 2021.

 ------------------------------------------------------------------
 # M06/def2TZVP int=(grid=ultrafine) nmr=giao guess=read geom=check
 ------------------------------------------------------------------

 -------
 2_1.xyz
 -------
 Structure from the checkpoint file:  "2_1.chk"
 Charge =  0 Multiplicity = 1

 SCF Done:  E(RM06) =  -2691.31581538     A.U. after   11 cycles

      1  Br   Isotropic =  2030.5155   Anisotropy =  1193.6432

      2  C    Isotropic =    43.4978   Anisotropy =   102.5116

      3  C    Isotropic =    30.8938   Anisotropy =   158.6878

      4  H    Isotropic =    25.6308   Anisotropy =     8.3276

      5  H    Isotropic =    25.7186   Anisotropy =     7.8690

      6  C    Isotropic =   156.2979   Anisotropy =    30.1382

      7  H    Isotropic =    30.2110   Anisotropy =     8.1525

      8  H    Isotropic =    30.2110   Anisotropy =     8.1525

      9  H    Isotropic =    30.2298   Anisotropy =     5.2771

 Normal termination of Gaussian 16 at Sat Feb 13 11:19:53 2021.

 ------------------------------------------------------------------
 # M06/def2TZVP int=(grid=ultrafine) pop=nbo6 guess=read geom=check
 ------------------------------------------------------------------

 -------
 2_1.xyz
 -------
 Structure from the checkpoint file:  "2_1.chk"
 Charge =  0 Multiplicity = 1

 SCF Done:  E(RM06) =  -2691.31581538     A.U. after    1 cycles

 Summary of Natural Population Analysis:

                                     Natural Population
             Natural    ---------------------------------------------
  Atom No    Charge        Core      Valence    Rydberg      Total
 --------------------------------------------------------------------
   Br  1    0.03625     27.99994     6.94946    0.01434    34.96375
    C  2   -0.27986      1.99998     4.25775    0.02213     6.27986
    C  3   -0.18478      1.99998     4.16709    0.01771     6.18478
    H  4    0.20259      0.00000     0.79501    0.00240     0.79741
    H  5    0.20453      0.00000     0.79313    0.00233     0.79547
    C  6   -0.62298      1.99998     4.61470    0.00830     6.62298
    H  7    0.21781      0.00000     0.78076    0.00142     0.78219
    H  8    0.21781      0.00000     0.78076    0.00142     0.78219
    H  9    0.20862      0.00000     0.78995    0.00143     0.79138
 ====================================================================
 * Total *  0.00000     33.99989    23.92863    0.07149    58.00000

 Normal termination of Gaussian 16 at Sat Feb 13 11:19:57 2021.
 Gaussian 16:  ES64L-G16RevB.01 20-Dec-2017

 ----------------------------------------------------------------------
 # M06/def2TZVP int=(grid=ultrafine) polar prop=(efg) guess=read geom=c
 heck
 ----------------------------------------------------------------------

 -------
 2_1.xyz
 -------
 Structure from the checkpoint file:  "2_1.chk"
 Charge =  0 Multiplicity = 1

                         Standard orientation:
 ---------------------------------------------------------------------
 Center     Atomic      Atomic             Coordinates (Angstroms)
 Number     Number       Type             X           Y           Z
 ---------------------------------------------------------------------
      1         35           0       -1.245756   -0.035864    0.000000
      2          6           0        0.587998    0.490836   -0.000002
      3          6           0        1.589175   -0.382504    0.000001
      4          1           0        1.365943   -1.446962   -0.000000
      5          1           0        0.712873    1.566839    0.000003
      6          6           0        3.034367    0.021927   -0.000000
      7          1           0        3.551371   -0.377655    0.880614
      8          1           0        3.551368   -0.377662   -0.880612
      9          1           0        3.150654    1.109134   -0.000003
 ---------------------------------------------------------------------

 SCF Done:  E(RM06) =  -2691.31581538     A.U. after    1 cycles

 The electronic state is 1-A.
 Alpha  occ. eigenvalues -- -483.18922 -62.80190 -56.51327 -56.50939 -56.50926
 Alpha  occ. eigenvalues --  -10.28580 -10.25882 -10.24895  -8.84510  -6.62582
 Alpha  occ. eigenvalues --   -6.61308  -6.61264  -2.68340  -2.67978  -2.67947
 Alpha  occ. eigenvalues --   -2.66915  -2.66915  -0.84272  -0.78407  -0.69016
 Alpha  occ. eigenvalues --   -0.57948  -0.47245  -0.46208  -0.43836  -0.39511
 Alpha  occ. eigenvalues --   -0.37010  -0.34517  -0.29890  -0.26084
 Alpha virt. eigenvalues --   -0.00358   0.00927   0.04811   0.06142   0.09038
 Alpha virt. eigenvalues --    0.09790   0.10831   0.14789   0.16570   0.19797
 Alpha virt. eigenvalues --    0.21373   0.22799   0.24041   0.24065   0.25373

 Mulliken charges:
               1
     1  Br  -0.084203
     2  C   -0.111051
     3  C   -0.091804
     4  H    0.119575
     5  H    0.127915
     6  C   -0.250515
     7  H    0.101838
     8  H    0.101837
     9  H    0.086409
 Sum of Mulliken charges =  -0.00000

 Dipole moment (field-independent basis, Debye):
    X=              1.9664    Y=              0.1391    Z=              0.0000  Tot=              1.9713
 Quadrupole moment (field-independent basis, Debye-Ang):
   XX=            -33.7639   YY=            -35.7485   ZZ=            -39.0813
   XY=              0.0898   XZ=              0.0000   YZ=              0.0000

  Exact polarizability:  86.437  -3.398  48.865   0.000  -0.000  39.546
 Approx polarizability: 111.949  -6.981  75.030   0.000  -0.000  58.075

 Normal termination of Gaussian 16 at Sat Feb 13 11:20:12 2021.
