 Gaussian 16, Revision B.01,

 ----------------------------------------------------------------------
 # B3LYP/6-31G(d,p) empiricaldispersion=GD3BJ int=(grid=fine) opt freq=
 noraman
 ----------------------------------------------------------------------

 -------
 3_1.xyz
 -------
 Symbolic Z-matrix:
 Charge =  0 Multiplicity = 1

 SCF Done:  E(RB3LYP) =  -2689.03107556     A.U. after   14 cycles
 SCF Done:  E(RB3LYP) =  -2689.03332684     A.U. after   12 cycles
 SCF Done:  E(RB3LYP) =  -2689.03346496     A.U. after   11 cycles
 SCF Done:  E(RB3LYP) =  -2689.03347563     A.U. after    8 cycles
 SCF Done:  E(RB3LYP) =  -2689.03347632     A.U. after    7 cycles
 Optimization completed.
    -- Stationary point found.
 Normal termination of Gaussian 16 at Sat Feb 13 12:21:11 2021.

 ----------------------------------------------------------------------
 #N Geom=AllCheck Guess=TCheck SCRF=Check GenChk RB3LYP/6-31G(d,p) Freq
 ----------------------------------------------------------------------

 Structure from the checkpoint file:  "3_1.chk"
 -------
 3_1.xyz
 -------
 Charge =  0 Multiplicity = 1

 SCF Done:  E(RB3LYP) =  -2689.03347632     A.U. after    1 cycles

                      1                      2                      3
                      A                      A                      A
 Frequencies --    124.5155               207.3540               387.5335
 Red. masses --      1.0301                 4.0362                 2.7898
 Frc consts  --      0.0094                 0.1022                 0.2469
 IR Inten    --      0.2778                 0.5193                 0.5373

                      4                      5                      6
                      A                      A                      A
 Frequencies --    493.2599               679.0237               696.7070
 Red. masses --      4.3324                 3.8752                 1.1743
 Frc consts  --      0.6210                 1.0527                 0.3358
 IR Inten    --      3.6150                35.1469                44.6907

                      7                      8                      9
                      A                      A                      A
 Frequencies --    943.0654               947.5507              1068.6267
 Red. masses --      2.0527                 1.1607                 1.4972
 Frc consts  --      1.0756                 0.6140                 1.0074
 IR Inten    --     14.4410                 0.4729                 0.5090

                     10                     11                     12
                      A                      A                      A
 Frequencies --   1088.8888              1249.2457              1336.5095
 Red. masses --      1.5253                 1.1872                 1.2860
 Frc consts  --      1.0656                 1.0916                 1.3534
 IR Inten    --      0.0619                 1.6776                54.2541

                     13                     14                     15
                      A                      A                      A
 Frequencies --   1426.4959              1495.4782              1499.9247
 Red. masses --      1.2666                 1.0615                 1.0444
 Frc consts  --      1.5185                 1.3987                 1.3844
 IR Inten    --      3.9643                 3.0310                 5.8345

                     16                     17                     18
                      A                      A                      A
 Frequencies --   1712.5336              3040.5929              3091.8950
 Red. masses --      6.2632                 1.0386                 1.1002
 Frc consts  --     10.8223                 5.6576                 6.1968
 IR Inten    --     14.9687                20.8211                17.5884

                     19                     20                     21
                      A                      A                      A
 Frequencies --   3142.0249              3156.4084              3245.3607
 Red. masses --      1.0903                 1.0952                 1.0960
 Frc consts  --      6.3420                 6.4289                 6.8011
 IR Inten    --      1.7333                12.5653                 7.1388

 - Thermochemistry -
 -------------------
 Temperature   298.150 Kelvin.  Pressure   1.00000 Atm.
 Atom     1 has atomic number 35 and mass  78.91834

 Molecular mass:   119.95746 amu.
 Principal axes and moments of inertia in atomic units:
                           1         2         3
     Eigenvalues --   137.33301 739.28841 865.45543
           X            0.99956   0.02974  -0.00000
           Y           -0.02974   0.99956   0.00000
           Z            0.00000  -0.00000   1.00000
 This molecule is an asymmetric top.
 Rotational symmetry number  1.
 Rotational temperatures (Kelvin)      0.63069     0.11716     0.10008
 Rotational constants (GHZ):          13.14135     2.44119     2.08531
 Zero-point vibrational energy     185618.5 (Joules/Mol)
                                   44.36389 (Kcal/Mol)
 Warning -- explicit consideration of   4 degrees of freedom as
           vibrations may cause significant error
 Vibrational temperatures:    179.15   298.34   557.57   709.69   976.96
          (Kelvin)           1002.41  1356.86  1363.31  1537.52  1566.67
                             1797.39  1922.94  2052.41  2151.66  2158.06
                             2463.95  4374.74  4448.55  4520.67  4541.37
                             4669.35

 Zero-point correction=                           0.070698 (Hartree/Particle)
 Thermal correction to Energy=                    0.075742
 Thermal correction to Enthalpy=                  0.076687
 Thermal correction to Gibbs Free Energy=         0.041464
 Sum of electronic and zero-point Energies=          -2688.962778
 Sum of electronic and thermal Energies=             -2688.957734
 Sum of electronic and thermal Enthalpies=           -2688.956790
 Sum of electronic and thermal Free Energies=        -2688.992012

                     E (Thermal)             CV                S
                      KCal/Mol        Cal/Mol-Kelvin    Cal/Mol-Kelvin
 Total                   47.529             16.256             74.131
 Electronic               0.000              0.000              0.000
 Translational            0.889              2.981             40.260
 Rotational               0.889              2.981             25.977
 Vibrational             45.752             10.294              7.894
 Vibration     1          0.610              1.928              3.029
 Vibration     2          0.641              1.829              2.067
 Vibration     3          0.756              1.497              1.010
 Vibration     4          0.849              1.265              0.675

 Optimization completed.
    -- Stationary point found.
 Normal termination of Gaussian 16 at Sat Feb 13 12:21:18 2021.

 ------------------------------------------------------------------
 # M06/def2TZVP int=(grid=ultrafine) nmr=giao guess=read geom=check
 ------------------------------------------------------------------

 -------
 3_1.xyz
 -------
 Structure from the checkpoint file:  "3_1.chk"
 Charge =  0 Multiplicity = 1

 SCF Done:  E(RM06) =  -2691.31697601     A.U. after   11 cycles

      1  Br   Isotropic =  2111.5938   Anisotropy =   910.1774

      2  C    Isotropic =    42.4844   Anisotropy =   102.7770

      3  C    Isotropic =    34.1360   Anisotropy =   171.6403

      4  H    Isotropic =    25.5727   Anisotropy =     7.2490

      5  H    Isotropic =    25.5550   Anisotropy =     4.6981

      6  C    Isotropic =   160.3424   Anisotropy =    19.9253

      7  H    Isotropic =    30.4153   Anisotropy =     9.0039

      8  H    Isotropic =    30.4153   Anisotropy =     9.0039

      9  H    Isotropic =    29.4673   Anisotropy =     5.8057

 Normal termination of Gaussian 16 at Sat Feb 13 12:21:33 2021.

 ------------------------------------------------------------------
 # M06/def2TZVP int=(grid=ultrafine) pop=nbo6 guess=read geom=check
 ------------------------------------------------------------------

 -------
 3_1.xyz
 -------
 Structure from the checkpoint file:  "3_1.chk"
 Charge =  0 Multiplicity = 1

 SCF Done:  E(RM06) =  -2691.31697601     A.U. after    1 cycles

 Summary of Natural Population Analysis:

                                     Natural Population
             Natural    ---------------------------------------------
  Atom No    Charge        Core      Valence    Rydberg      Total
 --------------------------------------------------------------------
   Br  1    0.02292     27.99994     6.96289    0.01425    34.97708
    C  2   -0.28187      1.99998     4.25983    0.02207     6.28187
    C  3   -0.18274      1.99998     4.16585    0.01690     6.18274
    H  4    0.21284      0.00000     0.78531    0.00185     0.78716
    H  5    0.20714      0.00000     0.79143    0.00143     0.79286
    C  6   -0.64217      1.99998     4.63281    0.00938     6.64217
    H  7    0.22063      0.00000     0.77808    0.00129     0.77937
    H  8    0.22063      0.00000     0.77808    0.00129     0.77937
    H  9    0.22262      0.00000     0.77561    0.00177     0.77738
 ====================================================================
 * Total *  0.00000     33.99989    23.92989    0.07023    58.00000

 Normal termination of Gaussian 16 at Sat Feb 13 12:21:37 2021.
 Gaussian 16:  ES64L-G16RevB.01 20-Dec-2017

 ----------------------------------------------------------------------
 # M06/def2TZVP int=(grid=ultrafine) polar prop=(efg) guess=read geom=c
 heck
 ----------------------------------------------------------------------

 -------
 3_1.xyz
 -------
 Structure from the checkpoint file:  "3_1.chk"
 Charge =  0 Multiplicity = 1

                         Standard orientation:
 ---------------------------------------------------------------------
 Center     Atomic      Atomic             Coordinates (Angstroms)
 Number     Number       Type             X           Y           Z
 ---------------------------------------------------------------------
      1         35           0        1.039178   -0.145140    0.000000
      2          6           0       -0.469031    1.029432   -0.000001
      3          6           0       -1.732336    0.613983   -0.000000
      4          1           0       -0.172578    2.069660    0.000001
      5          1           0       -2.483955    1.403479    0.000003
      6          6           0       -2.231347   -0.796012    0.000000
      7          1           0       -2.856574   -0.984254    0.880694
      8          1           0       -2.856558   -0.984258   -0.880704
      9          1           0       -1.405274   -1.509148    0.000008
 ---------------------------------------------------------------------

 SCF Done:  E(RM06) =  -2691.31697601     A.U. after    1 cycles

 The electronic state is 1-A.
 Alpha  occ. eigenvalues -- -483.19002 -62.80269 -56.51403 -56.51023 -56.51006
 Alpha  occ. eigenvalues --  -10.28590 -10.25944 -10.24331  -8.84591  -6.62647
 Alpha  occ. eigenvalues --   -6.61403  -6.61347  -2.68408  -2.68056  -2.68016
 Alpha  occ. eigenvalues --   -2.67009  -2.67009  -0.84342  -0.77846  -0.69955
 Alpha  occ. eigenvalues --   -0.55994  -0.50356  -0.43686  -0.43589  -0.40067
 Alpha  occ. eigenvalues --   -0.36539  -0.34407  -0.29904  -0.26249
 Alpha virt. eigenvalues --   -0.00152   0.01301   0.04123   0.06537   0.09179
 Alpha virt. eigenvalues --    0.10069   0.11660   0.14388   0.19091   0.20277
 Alpha virt. eigenvalues --    0.20779   0.22544   0.23083   0.24321   0.25138

 Mulliken charges:
               1
     1  Br  -0.090060
     2  C   -0.107061
     3  C   -0.129512
     4  H    0.135464
     5  H    0.110742
     6  C   -0.214811
     7  H    0.098799
     8  H    0.098799
     9  H    0.097640
 Sum of Mulliken charges =   0.00000

 Dipole moment (field-independent basis, Debye):
    X=             -1.6422    Y=              0.4449    Z=              0.0000  Tot=              1.7014
 Quadrupole moment (field-independent basis, Debye-Ang):
   XX=            -34.3132   YY=            -35.0775   ZZ=            -39.1226
   XY=             -0.5080   XZ=             -0.0000   YZ=              0.0000

  Exact polarizability:  79.196  -0.558  52.678   0.000   0.000  39.508
 Approx polarizability: 111.477  -4.092  76.437   0.000   0.000  58.471

 Normal termination of Gaussian 16 at Sat Feb 13 12:21:52 2021.
